! Touchstone file exported from HFSS 2023.1.1
!        File:           /home/local/ace/hy7593/HFSS_deisgn/InP_stack_EXAMPLE.aedt
!        Generated:      6:49:32 PM  Apr 05, 2024
!        Design:         Inverse_Design
!        Project:        InP_stack_EXAMPLE
!        Setup:          Setup1
!        Solution:       Sweep
!
! Variables:
!        feed_distance = 10um
!        feed_length = 29um
!        gnd_cut_size = 120um
!        gnd_gap = 10um
!        hActives = 0.3um
!        hM1 = 1.3um
!        hM2 = 3.3um
!        hM3 = 5.3um
!        hM4 = 7.3um
!        offset = 8um
!        subt = 150um
!        tBCB = 2um
!        tBCB_bottom = 1um
!        tM1 = 0.8um
!        tM2 = 1um
!        tM3 = 1um
!        tM4 = 3um
!        tSP = 0.2um
!        tSiO = 0.3um
!        tV12 = 1.2um
!        tV23 = 1um
!        tV34 = 1um
!        tair = 800um
!        top = 10um
!        top_size_x = 60um
!        top_size_y = 60um
!        width = 10um
!        xsub = 200um
!        ysub = 200um
!
# GHz S MA R 50.000000
! Terminal data exported
! Port[1] = M4_p_T1
! Port[2] = M4_n_T1
! Port[3] = M3_p_T1
! Port[4] = M3_n_T1
! Port[5] = CT_m4_T1
! Port[6] = CT_m3_T1
0                              0.327048059522759 180              0.664062758495607 0                0.00055142597061603 180              0.000559670321729482 180              
                               0.662985436907368 0                0.00111109325455627 0                
                               0.664062758495669 0                0.327056325590549 180              0.000570001526245718 180              0.000563381314591618 180              
                               0.662993702084465 0                0.00113338019322014 0                
                               0.000551425970614972 180              0.000570001526241981 180              0.319626959031236 180              0.658823658518545 0                
                               0.00112142471084731 0                0.660803115289124 0                
                               0.000559670321727879 180              0.000563381314591105 180              0.658823658518603 0                0.319632187099412 180              
                               0.0011230488484788 0                0.660808347857422 0                
                               0.662985436907375 0                0.662993702084456 0                0.001121424710847 0                0.00112304884847855 0                
                               0.325978998643111 180              0.00224447460838538 180              
                               0.00111109325455683 0                0.00113338019321763 0                0.660803115289127 0                0.660808347857486 0                
                               0.00224447460838384 180              0.321611643540251 180              
1                              0.32545425515577 179.475767281622 0.663070841197971 -0.809076092458953 0.00225552653830308 121.006685633213 0.00418812864025378 93.2396020884037 
                               0.662253164719109 -0.93504550594156 0.00839525994332117 78.3743766932951 
                               0.663070841197969 -0.80907609245894 0.325462995301204 179.47468367581  0.0041914898338554 93.33653010686   0.0022570442469196 121.156091320354 
                               0.662257436433605 -0.935531403972601 0.00839699078735604 78.2719332607059 
                               0.00225552653830268 121.006685633213 0.00419148983385424 93.3365301068741 0.317673423541143 179.402624147633 0.657525451705287 -0.923204597603629 
                               0.00838455581369975 78.3893654921748 0.660017253712031 -1.00182027652849 
                               0.00418812864025383 93.2396020884013 0.00225704424691815 121.156091320374 0.657525451705288 -0.923204597603611 0.317681116697589 179.401739605519 
                               0.0083893588963358 78.3915524456497 0.660029440047702 -1.00228923998669 
                               0.662253164719232 -0.935045505942896 0.662257436433609 -0.935531403972552 0.00838455581370076 78.3893654921757 0.00838935889633452 78.3915524456618 
                               0.32456423073679 179.221927406032 0.00377271431248816 -146.201171785676 
                               0.00839525994332077 78.3743766932921 0.00839699078735775 78.2719332606733 0.660017253712106 -1.00182027652935 0.660029440047699 -1.00228923998656 
                               0.00377271431317467 -146.201171739557 0.320082891310055 179.246518079483 
2                              0.324268694164973 179.173684313037 0.662228352547651 -1.56143024135339 0.00454556502238233 106.846376395395 0.00828351646335595 89.6901628025101 
                               0.66146724862408 -1.81613789794566 0.0161450383536623 81.2392554446929 
                               0.662228352547651 -1.56143024135338 0.324271066479608 179.172195334235 0.00828756804030739 89.7347699295754 0.00454533064954115 106.993984114403 
                               0.661469207081288 -1.81675153655737 0.0161471360704008 81.1754159097015 
                               0.00454556502238231 106.846376395396 0.00828756804030652 89.7347699295892 0.316156605789759 179.08963850712  0.65631472562184 -1.76747619927247 
                               0.0161257208464432 81.354642848466  0.659239488022315 -1.94405971824048 
                               0.00828351646335597 89.6901628025081 0.00454533064954056 106.993984114434 0.65631472562184 -1.7674761992725 0.316157542688657 179.088382594818 
                               0.0161334422482688 81.3414783374463 0.659240702197061 -1.94482821527819 
                               0.661467248624087 -1.81613789795015 0.66146920708129 -1.81675153655739 0.0161257208464432 81.3546428484647 0.0161334422482696 81.3414783374494 
                               0.323147081340582 178.668944566174 0.00520517874105543 -142.202964006183 
                               0.0161450383536621 81.2392554446929 0.0161471360703984 81.1754159096958 0.659239488022318 -1.94405971824324 0.659240702197061 -1.94482821527809 
                               0.00520517874177571 -142.202964008184 0.318677307196963 178.744283911165 
3                              0.323304629312438 178.979799290586 0.661350936905701 -2.28585112917978 0.00700166735406147 100.357964487057 0.0123972878541694 87.6672207130058 
                               0.660650365589752 -2.67187881848229 0.0237739818783102 81.7890532259881 
                               0.6613509369057  -2.28585112917978 0.323304149991574 178.978658232139 0.0124022212172236 87.6950166854791 0.00700335811465197 100.470562799639 
                               0.660649465805236 -2.6725166878751 0.0237733397334577 81.7397617882614 
                               0.00700166735406145 100.357964487058 0.0124022212172235 87.6950166854893 0.314864318176121 178.916770024887 0.655020538787733 -2.56783056693895 
                               0.0237462577865908 81.9835065166833 0.658463072293688 -2.86336724004318 
                               0.0123972878541693 87.6672207130047 0.00700335811465253 100.470562799654 0.655020538787733 -2.56783056693895 0.314861903322023 178.916045767891 
                               0.0237537009729192 81.9679708874391 0.658461297443131 -2.86370646742867 
                               0.660650365589758 -2.67187881848174 0.660649465805238 -2.67251668787508 0.0237462577865908 81.9835065166834 0.023753700972919 81.9679708874392 
                               0.32181318601248 178.225052526493 0.00631475169421022 -141.214425364926 
                               0.0237739818783102 81.7890532259879 0.023773339733458 81.739761788262  0.658463072293691 -2.86336724004288 0.658461297443131 -2.86370646742869 
                               0.00631475169418099 -141.214425364217 0.317412179089628 178.342572435032 
4                              0.322695366579956 178.841469771844 0.660498180984579 -2.99586478231991 0.00952277716231031 95.8839253594156 0.0165108793379081 86.0070511997539 
                               0.659855442550207 -3.5133534477067 0.0313186656330418 81.7375685562361 
                               0.660498180984578 -2.9958647823199 0.322694789710512 178.840600022581 0.0165167471722164 86.0270218099345 0.00952601832376437 95.9676299433414 
                               0.659853667734851 -3.51387491748943 0.0313147058789691 81.6988916979034 
                               0.00952277716231016 95.8839253594142 0.0165167471722168 86.02702180994   0.313987916435425 178.821632368904 0.653780579041485 -3.34227214064731 
                               0.0312831320817242 82.0061368569636 0.657711127992016 -3.77063150292696 
                               0.0165108793379081 86.0070511997532 0.00952601832376523 95.9676299433479 0.653780579041485 -3.34227214064731 0.313985071044444 178.821403293597 
                               0.0312895052730162 81.9930616509654 0.657709943595619 -3.77075725114901 
                               0.659855442550233 -3.51335344770633 0.659853667734853 -3.51387491748945 0.0312831320817244 82.0061368569637 0.0312895052730156 81.9930616509662 
                               0.320673708080256 177.841765226727 0.00725391913578998 -141.016193896138 
                               0.0313186656330418 81.737568556236  0.0313147058789704 81.6988916979014 0.657711127992032 -3.77063150292686 0.657709943595618 -3.77075725114902 
                               0.00725391913585434 -141.016193894696 0.316344044422727 177.994070560451 
5                              0.322398560680385 178.726023763809 0.659641555340485 -3.69866858666139 0.0120665818406998 92.3194200815506 0.0206164928906752 84.4885310667047 
                               0.659066714920189 -4.34735028899433 0.0388125605642098 81.4312322650439 
                               0.659641555340484 -3.69866858666139 0.322398759239261 178.725224618283 0.0206233517610543 84.5039593814007 0.0120705998711239 92.3842654493458 
                               0.659066086974138 -4.34782767864784 0.0388059423118444 81.4006950557631 
                               0.0120665818406998 92.3194200815504 0.0206233517610544 84.5039593814019 0.313493437823079 178.761391492158 0.652581868487205 -4.1030248995368 
                               0.0387695677835677 81.7715018103916 0.656957915163388 -4.67172831208173 
                               0.0206164928906751 84.4885310667045 0.0120705998711242 92.3842654493463 0.652581868487205 -4.1030248995368 0.313491159464349 178.761470949527 
                               0.0387753926433451 81.7620658075167 0.656957229866016 -4.67174610005092 
                               0.659066714920201 -4.34735028899475 0.659066086974139 -4.34782767864786 0.0387695677835678 81.7715018103915 0.0387753926433449 81.7620658075173 
                               0.31969603334298 177.490102600347 0.00807542953275183 -141.137144829548 
                               0.0388125605642099 81.4312322650438 0.0388059423118446 81.4006950557612 0.656957915163395 -4.67172831208204 0.656957229866015 -4.67174610005091 
                               0.00807542953281295 -141.137144829194 0.315423267588058 177.672873488806 
6                              0.322357878828601 178.619131057184 0.658751976904039 -4.39678733112627 0.0146171656026997 89.2689784658544 0.0247085403240929 83.0416102489555 
                               0.658261623062681 -5.17676023916716 0.0462715631192156 80.9804725827556 
                               0.658751976904039 -4.39678733112632 0.322358887811312 178.618268375433 0.024716367372279 83.0540208089832 0.014621476830053 89.3221569765112 
                               0.658262557796689 -5.17733455772252 0.0462632645174519 80.9558079068213 
                               0.0146171656026998 89.2689784658551 0.0247163673722782 83.0540208089829 0.313316342526339 178.716105995637 0.651388778232791 -4.85549596199187 
                               0.0462211779211021 81.3913543237883 0.656179643036647 -5.56888496882861 
                               0.0247085403240929 83.041610248956  0.0146214768300524 89.3221569765106 0.651388778232791 -4.85549596199187 0.313314807671863 178.716367907869 
                               0.046227390943139 81.3851226000104 0.656179471009764 -5.56878593342213 
                               0.658261623062671 -5.17676023916616 0.658262557796688 -5.17733455772245 0.046221177921102 81.3913543237885 0.0462273909431391 81.3851226000099 
                               0.318835886042214 177.15739948297  0.00881232201531684 -141.372235454215 
                               0.0462715631192156 80.9804725827557 0.0462632645174516 80.9558079068216 0.656179643036642 -5.56888496882796 0.656179471009764 -5.56878593342215 
                               0.00881232201524009 -141.372235454334 0.314603030627046 177.368688766679 
7                              0.322535461030289 178.513929584277 0.657812310282963 -5.09103335492255 0.017167384285121 86.5396430796553 0.0287826168994614 81.6377978828286 
                               0.657424895284373 -6.00283481531681 0.0537008651756867 80.4361794390163 
                               0.657812310282964 -5.09103335492268 0.322537081252203 178.512940921195 0.0287913354136323 81.6481522505801 0.0171717839380994 86.5856874320951 
                               0.657426686392233 -6.0036005659257 0.0536916964683782 80.4154459964112 
                               0.0171673842851212 86.5396430796553 0.0287913354136303 81.6481522505797 0.313410336375315 178.675970446318 0.65017527757257 -5.60201275438294 
                               0.0536431060706628 80.9172822879303 0.655362275559985 -6.46298172770411 
                               0.0287826168994616 81.6377978828286 0.0171717839380976 86.5856874320937 0.65017527757257 -5.60201275438292 0.31340950554221 178.676349917521 
                               0.0536505208189591 80.9133300504294 0.655363181245019 -6.46275359757258 
                               0.657424895284356 -6.00283481531272 0.657426686392231 -6.00360056592548 0.0536431060706626 80.9172822879307 0.0536505208189588 80.9133300504277 
                               0.318063653334536 176.837631228137 0.00948984344502203 -141.647360658837 
                               0.0537008651756869 80.4361794390164 0.0536916964683789 80.4154459964139 0.655362275559979 -6.46298172770159 0.655363181245019 -6.46275359757266 
                               0.00948984344480538 -141.647360658638 0.313855892227021 177.076965441746 
8                              0.322907034642092 178.406173092598 0.656813238284154 -5.78167467451922 0.0197126919817506 84.0239954542049 0.032835120302314 80.2633230624745 
                               0.656546873376612 -6.82620829529535 0.0611011816315074 79.8274466813366 
                               0.656813238284154 -5.78167467451943 0.322909070764824 178.405042617815 0.03284467111756 80.2723347002836 0.0197171596159315 84.0656723936865 
                               0.656548507839769 -6.82718839232204 0.0610916167681031 79.8091394869356 
                               0.019712691981751 84.0239954542052 0.0328446711175569 80.2723347002844 0.313744977287715 178.634960645856 0.648924752166478 -6.34370266050238 
                               0.0610361705800107 80.3786717087798 0.654497747446766 -7.3544580820563 
                               0.0328351203023143 80.2633230624747 0.0197171596159288 84.0656723936871 0.648924752166477 -6.34370266050234 0.313744796028793 178.635427471571 
                               0.0610452796960998 80.3761087278626 0.654500422220386 -7.35412079047682 
                               0.656546873376609 -6.826208295288  0.656548507839768 -6.82718839232165 0.0610361705800106 80.3786717087806 0.0610452796960985 80.3761087278602 
                               0.31736015848419 176.527284136544 0.0101259025880233 -141.947099456168 
                               0.0611011816315078 79.8274466813367 0.0610916167681064 79.8091394869395 0.654497747446773 -7.35445808205199 0.654500422220387 -7.35412079047697 
                               0.0101259025877351 -141.947099455304 0.313166012966955 176.795027411668 
9                              0.323455213428377 178.292650707172 0.655749469787616 -6.46878763046178 0.0222493689490709 81.6580361235038 0.0368629641120676 78.9105861744852 
                               0.655620985072306 -7.64724334305694 0.0684716035603991 79.1726345247716 
                               0.655749469787616 -6.46878763046205 0.323457548995699 178.291387426356 0.0368733467133317 78.9187775353116 0.0222539896616309 81.6970121191565 
                               0.655621646550054 -7.64840754088332 0.0684617849818649 79.155681453334  
                               0.0222493689490715 81.6580361235042 0.036873346713328 78.9187775353139 0.314298297180443 178.588609175197 0.647626189970151 -7.0811781339982 
                               0.0683996106599219 79.793966096759  0.653580893441459 -8.24357816962885 
                               0.0368629641120681 78.9105861744853 0.0222539896616276 81.6970121191589 0.64762618997015 -7.08117813399813 0.314298742649274 178.589149551066 
                               0.0684105827721066 79.7921209431862 0.653585843937641 -8.24317667461999 
                               0.655620985072337 -7.64724334304729 0.655621646550054 -7.64840754088278 0.0683996106599221 79.7939660967602 0.0684105827721038 79.7921209431836 
                               0.316711670449339 176.224014283367 0.0107322459295684 -142.275926330833 
                               0.0684716035603997 79.1726345247715 0.0684617849818716 79.1556814533377 0.653580893441488 -8.2435781696235 0.653585843937641 -8.2431766746202 
                               0.0107322459292856 -142.275926329322 0.312522913848996 176.520961884921 
10                             0.324165799101977 178.170737885874 0.654617796277076 -7.15235239713316 0.0247740983680155 79.4017716511648 0.0408633722604836 77.5749689276103 
                               0.654642378774124 -8.46614522954015 0.0758106467028105 78.48391473439   
                               0.654617796277074 -7.15235239713345 0.324168406272631 178.169361122922 0.0408746461071865 77.5826922036399 0.0247790078525215 79.4390383917005 
                               0.654641628176258 -8.46743705654872 0.0758004624757932 78.4676093119677 
                               0.0247740983680162 79.4017716511644 0.0408746461071824 77.5826922036435 0.315052360200642 178.533324880862 0.646271784324674 -7.81477307320611 
                               0.0757320758443363 79.175334164281  0.652607986392513 -9.13050107935239 
                               0.0408633722604842 77.5749689276103 0.0247790078525177 79.4390383917042 0.646271784324674 -7.81477307320601 0.315053441639816 178.533931777629 
                               0.0757448336356122 79.1737764897175 0.652615443277767 -9.13008879563644 
                               0.654642378774196 -8.46614522952967 0.654641628176259 -8.46743705654807 0.075732075844337 79.1753341642822 0.0757448336356079 79.1737764897152 
                               0.316107451304368 175.926203072807 0.0113161823332556 -142.641667779456 
                               0.0758106467028112 78.4839147343899 0.0758004624758034 78.4676093119703 0.652607986392568 -9.13050107934701 0.652615443277766 -9.13008879563669 
                               0.0113161823330353 -142.641667777492 0.311918600550831 176.25333512451  
11                             0.325026164248146 178.038265585902 0.653416245833099 -7.83228143156318 0.0272838909925341 77.2291653493163 0.0448337524088611 76.2534827940667 
                               0.653607324962316 -9.28300925064621 0.0831165832233503 77.7696317153818 
                               0.653416245833096 -7.83228143156348 0.32502908988335 178.036796371399 0.0448460180713475 76.2609516252373 0.027289240186969 77.2653043486739 
                               0.653605090520798 -9.28436725439582 0.0831057597367568 77.7535468775569 
                               0.0272838909925348 77.2291653493157 0.0448460180713435 76.260951625242  0.315991252202484 178.466178515149 0.644855784899134 -8.54463703395528 
                               0.083031937267527 78.5310925543252 0.651576159459726 -10.0153044636366 
                               0.0448337524088618 76.2534827940666 0.0272892401869651 77.2653043486796 0.644855784899134 -8.54463703395516 0.315993001564229 178.466847151874 
                               0.0830462521018867 78.5295921213386 0.65158611536146 -10.0149305554715 
                               0.65360732496243 -9.28300925063636 0.653605090520801 -9.2843672543951 0.0830319372675282 78.5310925543265 0.0830462521018809 78.5295921213368 
                               0.315538778324855 175.632755072345 0.0118821096741841 -143.04997523212 
                               0.0831165832233512 77.7696317153816 0.0831057597367701 77.7535468775577 0.651576159459806 -10.0153044636321 0.651586115361458 -10.0149305554718 
                               0.0118821096740577 -143.049975229938 0.311346503418943 175.991096817244 
12                             0.326024632673224 177.893459577463 0.652143731444828 -8.50843415734492 0.0297760706607199 75.1226127698588 0.0487716283475741 74.9441230112858 
                               0.652512956317851 -10.0978495463326 0.0903875334254707 77.035678595046  
                               0.652143731444824 -8.5084341573452 0.32602797849316 177.891916078391 0.0487850056619725 74.9514502883087 0.029782004806884 75.157958884589  
                               0.652509444594138 -10.0992200910897 0.0903757168538141 77.0195855698115 
                               0.0297760706607207 75.1226127698582 0.0487850056619688 74.951450288314  0.317100302699611 178.384803140832 0.64337397270997 -9.27078673253954 
                               0.0902973791301873 77.8671078696174 0.650483193699604 -10.8980001410102 
                               0.0487716283475748 74.9441230112855 0.0297820048068802 75.1579588845955 0.64337397270997 -9.2707867325394 0.317102765667793 178.385529042996 
                               0.0903129527655177 77.8655783555491 0.650495485470788 -10.8977030111701 
                               0.652512956318   -10.0978495463246 0.652509444594143 -10.099220091089 0.0902973791301892 77.8671078696187 0.0903129527655106 77.8655783555479 
                               0.31499854507332 175.342961629376 0.01243262284981 -143.503343197226 
                               0.0903875334254716 77.0356785950456 0.0903757168538297 77.0195855698103 0.650483193699702 -10.8980001410072 0.650495485470786 -10.8977030111703 
                               0.012432622849787 -143.503343195032 0.310801138238401 175.733510971321 
13                             0.327150259175458 177.734889241846 0.650799892136588 -9.18062967914402 0.032248254500205 73.0697841177183 0.0526746095438969 73.6455227618192 
                               0.651357131241993 -10.9106210663294 0.0976214933866335 76.2863404594417 
                               0.650799892136583 -9.18062967914426 0.327154163141919 177.733284723988 0.0526892206389188 73.6527548609732 0.0322549020904107 73.1045260258063 
                               0.651352723321064 -10.9119642148828 0.0976083107971255 76.2701424277551 
                               0.0322482545002058 73.0697841177174 0.0526892206389157 73.6527548609789 0.318365813732335 178.287315783063 0.641823390363408 -9.99314272432817 
                               0.0975264338711099 77.1876480775051 0.649327429370113 -11.7785486347858 
                               0.0526746095438976 73.6455227618187 0.0322549020904071 73.1045260258137 0.641823390363408 -9.99314272432802 0.318369043204574 178.288094062488 
                               0.097542958032311 77.1860959110503 0.64934181869962 -11.7783541959819 
                               0.651357131242167 -10.910621066324 0.651352723321071 -10.9119642148821 0.0975264338711125 77.1876480775062 0.0975429580323029 77.1860959110499 
                               0.314481037168532 175.056392862393 0.0129692422409474 -144.001662365324 
                               0.0976214933866343 76.2863404594412 0.0976083107971424 76.2701424277519 0.649327429370223 -11.7785486347849 0.649341818699616 -11.7783541959821 
                               0.0129692422410219 -144.001662363269 0.310277987276532 175.480087787968 
14                             0.328392743710891 177.561417638142 0.649385000439949 -9.84865872918897 0.0346983222202496 71.0617620284608 0.0565403814634029 72.3567493302219 
                               0.650138336562584 -11.7212370286504 0.104816353831808 75.524824100926  
                               0.649385000439943 -9.84865872918915 0.328397364999498 177.559759901503 0.0565563401745251 72.3638924369485 0.0347057902852102 71.0960034558142 
                               0.650133498273687 -11.7225278913977 0.104801453845163 75.508506338692  
                               0.0346983222202503 71.0617620284597 0.0565563401745227 72.3638924369546 0.319774960007458 178.172243941329 0.640202164992243 -10.7115581349481 
                               0.104717009904238 76.4959127460768 0.648107709139114 -12.6568724765118 
                               0.0565403814634035 72.3567493302213 0.0347057902852071 71.0960034558222 0.640202164992244 -10.7115581349479 0.31977901183278 178.17306912174  
                               0.104734204333883 76.494397397416  0.648123943991037 -12.6567952262707 
                               0.650138336562773 -11.721237028648 0.650133498273695 -11.7225278913971 0.104717009904241 76.4959127460777 0.104734204333875 76.4943973974162 
                               0.313981745803793 174.772812129602 0.0134928653590703 -144.543083480271 
                               0.104816353831809 75.5248241009254 0.10480145384518 75.5085063386869 0.648107709139227 -12.656872476513 0.648123943991033 -12.6567952262708 
                               0.0134928653592273 -144.543083478451 0.309773418604431 175.230520113483 
15                             0.329742379766491 177.372155315055 0.647899890006647 -10.5122942313273 0.0371243809547187 69.0919108293632 0.0603667063630116 71.0771748099422 
                               0.648855602979283 -12.5295824570209 0.111969922746675 74.7535965981819 
                               0.647899890006641 -10.5122942313275 0.329747887595648 177.370446915819 0.0603841128936894 71.0842131495799 0.037132754133463 69.1257074388744 
                               0.648850817932965 -12.5308100078361 0.111952999375361 74.7371912074833 
                               0.0371243809547195 69.0919108293621 0.0603841128936878 71.084213149586  0.32131573011811 178.038458362656 0.638509364209752 -11.4258412142189 
                               0.111866921753462 75.794369455318  0.64682332540817 -13.5328674593893 
                               0.0603667063630122 71.0771748099415 0.0371327541334604 69.1257074388825 0.638509364209753 -11.4258412142187 0.321320660461787 178.039324430606 
                               0.111884555077522 75.7929754272884 0.646841179665752 -13.5329128227094 
                               0.648855602979476 -12.5295824570216 0.648850817932974 -12.5308100078355 0.111866921753465 75.7943694553186 0.111884555077513 75.7929754272892 
                               0.313497188139137 174.492110991745 0.0140040355828376 -145.12476896448 
                               0.111969922746676 74.7535965981812 0.111952999375378 74.7371912074768 0.64682332540828 -13.5328674593925 0.646841179665748 -13.5329128227096 
                               0.0140040355830582 -145.124768962942 0.309284595367208 174.984629454274 
16                             0.331190006541314 177.166420275195 0.646345889399768 -11.1713000644908 0.0395247314608069 67.1551697898449 0.0641514287047621 69.8063897425001 
                               0.647508427657202 -13.3355243191686 0.119079951370855 73.9746052404458 
                               0.646345889399762 -11.1713000644909 0.331196572325024 177.164659117017 0.0641703678287487 69.8132972827224 0.0395340731324208 67.1885510867004 
                               0.647504152502738 -13.3366890449965 0.119060755507455 73.9581674216513 
                               0.0395247314608076 67.1551697898437 0.0641703678287478 69.8132972827283 0.32297686885155 177.885114763513 0.636744867364225 -12.1357726318238 
                               0.118973921523375 75.0849711185786 0.645473967030921 -14.4064115579581 
                               0.0641514287047626 69.8063897424994 0.0395340731324188 67.1885510867085 0.636744867364226 -12.1357726318237 0.322982732632064 177.88601529856  
                               0.118991819883569 75.0837896206201 0.645493261782347 -14.4065785383868 
                               0.64750842765739 -13.3355243191722 0.647504152502749 -13.336689044996 0.118973921523379 75.084971118579  0.11899181988356 75.0837896206215 
                               0.313024736027604 174.214261771971 0.0145030967212739 -145.743434291666 
                               0.119079951370856 73.9746052404451 0.119060755507471 73.9581674216435 0.645473967031022 -14.4064115579631 0.645493261782342 -14.4065785383869 
                               0.0145030967215385 -145.743434290423 0.308809372739923 174.742323325886 
17                             0.332726960009448 176.943704797554 0.644724759391741 -11.8254380009108 0.0418978387667037 65.2475982594169 0.0678924821066935 68.5441433457079 
                               0.646096704189227 -14.1389188920971 0.126144160746721 73.1894228860866 